% Model:              PRIMA_Oblong.mph      
% Version:            COMSOL 6.0.0.405      
% Date:               Mar 10 2023, 17:28    
% Dimension:          3                     
% Nodes:              1510                  
% Elements:           1928                  
% Expressions:        0                     
% Description:                              
% Length unit:        µm                    
% Coordinates
1321.5                   1194.86773132596         0                        
1332.5                   1188.51687836487         0                        
1321.5                   1207.51687836487         0                        
1310.5                   1213.867731325962        0                        
1310.5                   1226.61687836487         0                        
1299.5                   1232.967731325949        0                        
1299.5                   1245.61687836487         0                        
1288.5                   1251.967731325957        0                        
1288.5                   1264.71687836487         0                        
1277.5                   1271.067731325951        0                        
1277.5                   1283.71687836487         0                        
1409.5                   1042.36773132596         0                        
1420.5                   1036.01687836487         0                        
1409.5                   1055.11687836487         0                        
1420.5                   1023.367731325952        0                        
1431.5                   1017.016878364871        0                        
1398.5                   1061.467731325952        0                        
1398.5                   1074.11687836487         0                        
1365.5                   1118.567731325954        0                        
1376.5                   1112.21687836487         0                        
1365.5                   1131.31687836487         0                        
1376.5                   1099.567731325968        0                        
1387.5                   1093.21687836487         0                        
1387.5                   1080.467731325954        0                        
1427.359226056914        1064.71830441803         0                        
1354.5                   1137.667731325947        0                        
1354.5                   1150.41687836487         0                        
1332.5                   1175.767731325955        0                        
1343.5                   1169.41687836487         0                        
1343.5                   1156.767731325969        0                        
1383.728702970418        1141.382942721154        0                        
1356.319169094858        1217.205519139926        0                        
1266.5                   1290.06773132595         0                        
1266.5                   1302.81687836487         0                        
1339.620666540914        1270.139777417721        0                        
1380.138338189716        1245.894159914981        0                        
1304.653623810731        1313.082898979336        0                        
1464.5                   947.147731325961         0                        
1475.5                   940.7968783648704        0                        
1464.5                   959.8468783648705        0                        
1431.5                   1004.29773132595         0                        
1442.5                   997.9468783648705        0                        
1442.5                   985.24773132596          0                        
1453.5                   978.8968783648702        0                        
1453.5                   966.1977313259648        0                        
1456.218452113827        1055.319730471189        0                        
1434.877107717095        1117.13108822218         0                        
1390.957405940837        1170.549007077437        0                        
1416.414811881674        1209.781135790004        0                        
1390.741333081828        1275.562676470571        0                        
1242.999999999995        1303.682903768652        0                        
1254                     1310.033756729741        0                        
1232                     1310.033756729741        0                        
1220.999999999993        1303.682903768651        0                        
1210                     1310.033756729741        0                        
1133.000000000003        1303.682903768656        0                        
1144                     1310.033756729741        0                        
1122                     1310.033756729741        0                        
1154.999999999991        1303.68290376865         0                        
1166                     1310.033756729741        0                        
1177.000000000004        1303.682903768657        0                        
1188                     1310.033756729741        0                        
1199.000000000005        1303.682903768658        0                        
1111.000000000002        1303.682903768655        0                        
1100                     1310.033756729741        0                        
1089.000000000001        1303.682903768655        0                        
1078                     1310.033756729741        0                        
1273.777050385017        1337.087363344048        0                        
1331.80724762146         1342.448919593801        0                        
1397.11449524292         1382.080960822732        0                        
1489.752668088751        969.9785705527937        0                        
1486.5                   921.7368783648703        0                        
1475.5                   928.0877313259633        0                        
1486.5                   909.0377313259594        0                        
1497.5                   902.6868783648704        0                        
1497.5                   889.9877313259553        0                        
1508.5                   883.6368783648703        0                        
1508.5                   870.9377313259658        0                        
1519.5                   864.5868783648704        0                        
1519.5                   851.8777313259449        0                        
1530.5                   845.5268783648703        0                        
1530.5                   832.8277313259586        0                        
1541.5                   826.4768783648703        0                        
1543.977378919577        903.4517922373055        0                        
1504.005336177502        999.1602627407166        0                        
1502.936904227653        1055.522582577508        0                        
1471.254215434189        1160.14529807949         0                        
1481.982666163655        1305.508474576271        0                        
1067                     1303.682903768655        0                        
1056                     1310.033756729741        0                        
1045.000000000011        1303.682903768661        0                        
1034                     1310.033756729741        0                        
1022.999999999998        1303.682903768653        0                        
1012                     1310.033756729741        0                        
1210.719732021606        1348.429412117176        0                        
1136.299594702642        1343.215930148491        0                        
1177.719732021606        1348.429412117176        0                        
1085.199295264733        1351.275317547306        0                        
1281.054100770033        1371.357848323225        0                        
1308.108201540066        1432.681939916708        0                        
1541.5                   813.7777313259544        0                        
1552.5                   807.4268783648704        0                        
1552.5                   794.7177313259511        0                        
1563.5                   788.3668783648703        0                        
1563.5                   775.6677313259453        0                        
1574.5                   769.3168783648704        0                        
1534.619593021118        950.9398670755271        0                        
1574.53807568798         862.9969818191232        0                        
1579.454757839155        923.2667061097407        0                        
1554.510672355004        1019.423647116563        0                        
1585.373808455306        1075.028286790146        0                        
1577.008430868377        1188.973717794109        0                        
1574.5                   756.6177313259576        0                        
1585.5                   750.2668783648703        0                        
1585.5                   737.5677313259681        0                        
1596.5                   731.2168783648704        0                        
1596.5                   718.5077313259634        0                        
1607.5                   712.1568783648704        0                        
1618.499999999999        653.2722686740429        0                        
1618.5                   642.2977313259615        0                        
1629.5                   659.6231216351297        0                        
1629.5                   635.9468783648704        0                        
1607.5                   699.4577313259592        0                        
1618.5                   693.1068783648703        0                        
1618.5                   680.4077313259569        0                        
1629.5                   674.0568783648704        0                        
1640.500000000001        577.0622686740447        0                        
1640.5                   566.0877313259598        0                        
1651.5                   583.4131216351296        0                        
1651.5                   559.7368783648703        0                        
1651.5                   547.0377313259571        0                        
1662.5                   540.6868783648704        0                        
825.0000000000023        1303.682903768656        0                        
836                      1310.033756729741        0                        
814                      1310.033756729741        0                        
1000.999999999997        1303.682903768653        0                        
989.9999999999998        1310.033756729741        0                        
979.0000000000086        1303.68290376866         0                        
968                      1310.033756729741        0                        
956.9999999999952        1303.682903768652        0                        
946                      1310.033756729741        0                        
847.0000000000032        1303.682903768656        0                        
858                      1310.033756729741        0                        
934.9999999999942        1303.682903768651        0                        
924.0000000000001        1310.033756729741        0                        
869.0000000000006        1303.682903768655        0                        
880                      1310.033756729741        0                        
890.9999999999925        1303.68290376865         0                        
902                      1310.033756729741        0                        
913.0000000000025        1303.682903768656        0                        
1017.057767810542        1358.1489110169          0                        
1189.439464043212        1386.825067504611        0                        
1128.599189405283        1376.398103567241        0                        
1070.398590529467        1392.516878364871        0                        
1212.878928086425        1463.61637827948         0                        
1662.500000000007        500.852268674048         0                        
1662.5                   489.8777313259605        0                        
1673.5                   507.2031216351297        0                        
1662.5                   527.9877313259532        0                        
1673.5                   521.6368783648703        0                        
1673.5                   483.5268783648703        0                        
1618.871788630034        804.9071379444208        0                        
1593.739186042235        961.0828557861832        0                        
1618.57615137596         880.467085273376         0                        
1667.97837208447         1057.578833207497        0                        
1643.895440942563        735.8212352009648        0                        
1629.5                   623.247731325959         0                        
1640.5                   616.8968783648703        0                        
1640.5                   604.1977313259549        0                        
1651.5                   597.8468783648703        0                        
1661.988634816058        656.0729767784088        0                        
1660.395440942563        707.2412352009654        0                        
1689.782205742863        579.5666329711704        0                        
1681.641102871431        550.60175566802          0                        
803.0000000000013        1303.682903768655        0                        
792                      1310.033756729741        0                        
810.0084468278557        1330.654537138523        0                        
842.2835905942858        1335.809732240719        0                        
953.6329708225372        1351.275317547306        0                        
877.0721705984297        1351.275317547306        0                        
900.5360852992144        1330.654537138523        0                        
1000.115535621083        1406.264065304059        0                        
1106.797181058933        1475                     0                        
1684.499999999997        424.6422686740418        0                        
1684.5                   413.667731325958         0                        
1695.5                   430.9931216351297        0                        
1695.5                   407.3168783648703        0                        
1695.5                   394.6177313259616        0                        
1706.5                   388.2668783648703        0                        
1707.71592164823         503.0203853879715        0                        
1673.5                   470.8277313259554        0                        
1684.5                   464.4768783648703        0                        
1684.5                   451.777731325959         0                        
1695.5                   445.4268783648703        0                        
1674.243577260067        821.4473975239708        0                        
1751.987154520135        911.677916683072         0                        
1691.290881885125        740.4255920370595        0                        
1694.477269632117        638.0890751919472        0                        
1737.454539264234        678.3312720190243        0                        
1728.064411485727        561.2863875774705        0                        
781.0000000000005        1303.682903768655        0                        
770                      1310.033756729741        0                        
736.9999999999987        1303.682903768654        0                        
748                      1310.033756729741        0                        
726                      1310.033756729741        0                        
758.9999999999998        1303.682903768655        0                        
715.0000000000103        1303.682903768661        0                        
704                      1310.033756729741        0                        
671.0000000000051        1303.682903768658        0                        
682                      1310.033756729741        0                        
660                      1310.033756729741        0                        
692.9999999999969        1303.682903768653        0                        
784.016893655711         1351.275317547306        0                        
852.1443411968588        1392.516878364871        0                        
939.2659416450743        1392.516878364871        0                        
976.5318832901484        1475.000000000001        0                        
1728.5                   272.222268674044         0                        
1728.5                   261.2477313259539        0                        
1739.5                   278.5731216351297        0                        
1739.5                   254.8968783648703        0                        
1706.5                   337.4577313259559        0                        
1717.5                   331.1068783648703        0                        
1706.499999999998        348.4322686740428        0                        
1706.5                   375.567731325957         0                        
1717.5                   369.2168783648703        0                        
1717.5                   354.7831216351297        0                        
1731.738152403799        430.9249925705449        0                        
1742.738152403799        392.8199925705451        0                        
1717.5                   318.407731325957         0                        
1728.5                   312.0568783648703        0                        
1728.5                   299.3577313259555        0                        
1739.5                   293.0068783648703        0                        
1741.93184329646         484.4038924110725        0                        
1823.409078528467        758.8156656731779        0                        
1782.628822971453        600.9358967900713        0                        
1788.36368659292         523.3809064572749        0                        
649.0000000000076        1303.682903768659        0                        
638                      1310.033756729741        0                        
604.9999999999995        1303.682903768655        0                        
616                      1310.033756729741        0                        
594                      1310.033756729741        0                        
627.0000000000003        1303.682903768655        0                        
539.0000000000032        1303.682903768657        0                        
550                      1310.033756729741        0                        
528                      1310.033756729741        0                        
560.9999999999977        1303.682903768653        0                        
572                      1310.033756729741        0                        
582.9999999999987        1303.682903768654        0                        
740.0168936557112        1351.275317547306        0                        
676.5405887320699        1358.1489110169          0                        
754.0337873114222        1392.516878364871        0                        
846.2886823937174        1475.000000000001        0                        
1750.499999999999        196.0122686740432        0                        
1750.5                   185.0377313259593        0                        
1761.5                   202.3631216351297        0                        
1761.5                   178.6868783648703        0                        
1774.328757070572        277.8756848303941        0                        
1739.5                   242.1977313259498        0                        
1750.5                   235.8468783648703        0                        
1750.5                   223.1477313259568        0                        
1761.5                   216.7968783648703        0                        
1751.69758006716         349.6396378484912        0                        
1767.976304807598        416.4231067762194        0                        
1785.895160134319        330.062397332112         0                        
1829.452609615195        444.5793351875684        0                        
1881.227373185839        601.3349345496795        0                        
1761.5                   165.9877313259552        0                        
1772.5                   159.6368783648703        0                        
1772.5                   146.9377313259585        0                        
1783.5                   140.5868783648703        0                        
1772.500000000001        119.8022686740441        0                        
1772.5                   108.8277313259553        0                        
1783.5                   126.1531216351297        0                        
1783.5                   102.4768783648703        0                        
1783.5                   89.77773132595517        0                        
1794.5                   83.42687836487032        0                        
1794.5                   70.72773132595653        0                        
1805.5                   64.37687836487032        0                        
1794.5                   43.59226867404381        0                        
1794.5                   32.61773132595638        0                        
1805.5                   49.94312163512968        0                        
1805.5                   26.26687836487032        0                        
516.9999999999959        1303.682903768652        0                        
506.0000000000001        1310.033756729741        0                        
472.9999999999969        1303.682903768653        0                        
484                      1310.033756729741        0                        
462.0000000000001        1310.033756729741        0                        
495.0000000000011        1303.682903768655        0                        
406.9999999999977        1303.682903768653        0                        
418                      1310.033756729741        0                        
396                      1310.033756729741        0                        
429.000000000005         1303.682903768658        0                        
440                      1310.033756729741        0                        
450.9999999999977        1303.682903768653        0                        
525.5332053808197        1334.091333873321        0                        
608.4670043766876        1351.275317547306        0                        
545.0664107616392        1358.1489110169          0                        
693.0811774641394        1406.264065304059        0                        
622.9340087533748        1392.516878364871        0                        
716.0675746228438        1475.000000000001        0                        
1794.5                   5.482268674043814        0                        
1794.5                   -5.482268674043696       0                        
1805.5                   11.83312163512968        0                        
1805.5                   -11.83312163512968       0                        
1793.828576056784        196.9143094946681        0                        
1809.157514141142        262.7444912959178        0                        
1832.290320268638        367.1179162993541        0                        
1867.815028282285        289.6421042269654        0                        
1925.080640537276        441.2289542338377        0                        
1826.157152113568        177.0317406244661        0                        
1832.898008802758        118.7146035179634        0                        
1819.199004401379        91.54574094141665        0                        
1836.28700220069         39.52873026631742        0                        
384.9999999999969        1303.682903768653        0                        
374                      1310.033756729741        0                        
363.0000000000022        1303.682903768656        0                        
352                      1310.033756729741        0                        
340.9999999999994        1303.682903768654        0                        
330                      1310.033756729741        0                        
319.0000000000036        1303.682903768657        0                        
308                      1310.033756729741        0                        
275.0000000000016        1303.682903768655        0                        
286                      1310.033756729741        0                        
264                      1310.033756729741        0                        
296.9999999999977        1303.682903768653        0                        
253.0000000000008        1303.682903768655        0                        
242                      1310.033756729741        0                        
209.0000000000012        1303.682903768655        0                        
220                      1310.033756729741        0                        
198                      1310.033756729741        0                        
230.9999999999989        1303.682903768654        0                        
393.7967406251852        1334.091333873321        0                        
476.918777949896         1351.275317547306        0                        
413.5934812503708        1358.1489110169          0                        
491.8375558997923        1392.516878364871        0                        
562.1328215232779        1406.264065304059        0                        
585.86801750675          1475                     0                        
1794.5                   -32.61773132595619       0                        
1794.5                   -43.59226867404391       0                        
1805.5                   -26.26687836487032       0                        
1805.5                   -49.94312163512967       0                        
1772.500000000001        -108.8277313259559       0                        
1772.5                   -119.8022686740407       0                        
1783.5                   -102.4768783648703       0                        
1783.5                   -126.1531216351297       0                        
1783.5                   -89.77773132595618       0                        
1794.5                   -83.4268783648703        0                        
1794.499999999999        -70.72773132595664       0                        
1805.5                   -64.37687836487032       0                        
1847.875                 -0.6501587736527092      0                        
1868.814304227137        213.4766028840618        0                        
1954.128608454273        286.3663274032536        0                        
1882.296017605516        111.2760854007977        0                        
1867.074004401379        52.79058216776455        0                        
120.9999999999997        1303.682903768655        0                        
132                      1310.033756729741        0                        
110                      1310.033756729741        0                        
187.0000000000002        1303.682903768655        0                        
176                      1310.033756729741        0                        
143.000000000001         1303.682903768655        0                        
154                      1310.033756729741        0                        
165.0000000000018        1303.682903768656        0                        
345.370554691077         1351.275317547306        0                        
282.1205544750791        1358.1489110169          0                        
213.8223322962505        1351.275317547306        0                        
360.7411093821544        1392.516878364871        0                        
431.1869625007416        1406.264065304059        0                        
455.6751117995849        1475.000000000001        0                        
1728.5                   -261.2477313259561       0                        
1728.5                   -272.2222686740446       0                        
1739.5                   -254.8968783648703       0                        
1739.5                   -278.5731216351297       0                        
1750.499999999999        -185.0377313259567       0                        
1750.5                   -196.0122686740444       0                        
1761.5                   -178.6868783648703       0                        
1761.5                   -202.3631216351297       0                        
1761.5                   -165.9877313259563       0                        
1772.5                   -159.6368783648703       0                        
1772.500000000001        -146.9377313259558       0                        
1783.5                   -140.5868783648703       0                        
1847.875                 -38.75515877365277       0                        
1832.898008802758        -118.7146035179651       0                        
1847.371423268735        -84.15841518830769       0                        
1890.25                  -13.13343918243515       0                        